Title="finite-element data for brick" 
Variables="x","y","z" 
Zone n=45,e=16,f=fepoint,et=brick 
      .000000      .000000      .000000 
      .000000     1.000000      .000000 
       .000000     2.000000      .000000 
       .000000      .000000     1.000000 
       .000000     1.000000     1.000000 
       .000000     2.000000     1.000000 
       .000000      .000000     2.000000 
       .000000     1.000000     2.000000 
       .000000     2.000000     2.000000 
      3.000000      .000000      .000000 
      3.000000     1.000000      .000000 
      3.000000     2.000000      .000000 
      2.500000      .000000     1.000000 
      2.500000     1.000000     1.000000 
      2.500000     2.000000     1.000000 
      2.000000      .000000     2.000000 
      2.000000     1.000000     2.000000 
      2.000000     2.000000     2.000000 
      6.000000      .000000      .000000 
      6.000000     1.000000      .000000 
      6.000000     2.000000      .000000 
      5.000000      .000000     1.000000 
      5.000000     1.000000     1.000000 
      5.000000     2.000000     1.000000 
      4.000000      .000000     2.000000 
      4.000000     1.000000     2.000000 
      4.000000     2.000000     2.000000 
      8.000000      .000000      .000000 
      8.000000     1.000000      .000000 
      8.000000     2.000000      .000000 
      7.500000      .000000     1.000000 
      7.500000     1.000000     1.000000 
      7.500000     2.000000     1.000000 
      7.000000      .000000     2.000000 
      7.000000     1.000000     2.000000 
      7.000000     2.000000     2.000000 
     10.000000      .000000      .000000 
     10.000000     1.000000      .000000 
     10.000000     2.000000      .000000 
     10.000000      .000000     1.000000 
     10.000000     1.000000     1.000000 
     10.000000     2.000000     1.000000 
     10.000000      .000000     2.000000 
     10.000000     1.000000     2.000000 
     10.000000     2.000000     2.000000 
   1  10  11   2   4  13  14   5 
   4  13  14   5   7  16  17   8 
   2  11  12   3   5  14  15   6 
   5  14  15   6   8  17  18   9 
   10  19  20  11  13  22  23  14 
   13  22  23  14  16  25  26  17 
   11  20  21  12  14  23  24  15 
   14  23  24  15  17  26  27  18 
   19  28  29  20  22  31  32  23 
   22  31  32  23  25  34  35  26 
   20  29  30  21  23  32  33  24 
   23  32  33  24  26  35  36  27 
   28  37  38  29  31  40  41  32 
   31  40  41  32  34  43  44  35 
   29  38  39  30  32  41  42  33 
   32  41  42  33  35  44  45  36 