TITLE = "Q4 Element Patch Test (5 Elements, Plane Stress)"
VARIABLES = "X", "Y", "U", "V", "EXX", "EYY"
ZONE T="PatchTestModel", N=8, E=5, F=FEPOINT, ET=QUADRILATERAL
0.0    0.0    0.0      0.0       -10.0  0.0
2.5    0.0    0.025    0.0        15.0  0.0
2.5    3.0    0.025   -0.009      10.0  0.0
0.0    2.0    0.0     -0.006     -15.0  0.0
0.5    0.5    0.005   -0.0015     0.0   0.0
2.0    0.75   0.02    -0.00225    0.0   0.0
1.75   1.75   0.0175  -0.00525    0.0   0.0
0.65   1.6    0.0065  -0.0048     0.0   0.0
1 2 6 5
2 3 7 6
3 4 8 7
4 1 5 8
5 6 7 8